# vtk DataFile Version 4.2
vtk output
ASCII
DATASET UNSTRUCTURED_GRID
POINTS 1600 float
66 53 52 171 173 5 189 134 11 
124 195 77 121 60 95 73 186 55 
103 14 33 37 124 10 65 143 23 
121 53 157 146 102 81 189 113 41 
173 57 50 87 34 70 125 151 39 
154 115 44 114 132 98 87 182 31 
77 179 38 118 123 12 166 127 99 
115 188 76 66 13 151 20 144 146 
50 151 143 32 107 51 50 110 67 
70 22 103 92 176 121 63 115 87 
32 118 79 42 123 47 101 69 123 
139 147 152 99 201 109 100 153 87 
78 19 116 163 185 18 176 44 118 
11 121 64 109 66 90 101 47 3 
97 122 84 48 88 119 100 99 21 
150 156 76 142 142 40 31 167 140 
63 53 139 113 144 142 16 116 121 
118 40 70 99 128 112 196 84 65 
106 44 38 99 93 17 82 185 71 
79 29 143 182 102 160 89 41 7 
144 122 53 131 47 117 182 146 79 
131 27 72 85 62 21 58 49 83 
16 103 20 58 40 47 40 45 7 
180 127 19 176 46 130 137 84 145 
24 100 81 116 124 126 35 57 75 
86 190 62 44 149 116 27 87 105 
92 27 62 78 151 146 123 50 72 
189 104 12 185 53 17 173 47 7 
95 101 41 139 146 123 96 157 36 
26 45 39 49 96 152 88 157 37 
104 130 143 24 62 130 71 62 61 
151 183 111 34 101 59 32 146 124 
21 101 30 175 96 141 18 84 102 
109 204 144 157 81 31 94 9 66 
189 145 128 75 55 12 97 157 145 
110 87 115 97 194 153 56 110 4 
160 38 21 112 147 154 82 118 8 
171 142 94 59 83 101 132 83 54 
177 72 113 158 117 11 129 95 146 
174 56 117 84 81 132 105 119 107 
32 47 71 105 32 78 61 19 120 
100 135 65 94 204 126 111 130 45 
71 131 87 159 84 78 156 171 106 
105 10 53 167 170 107 60 78 96 
97 47 12 97 41 112 6 116 138 
106 91 85 15 152 101 165 88 21 
151 160 155 128 104 112 68 28 92 
80 195 111 61 92 49 94 129 126 
65 188 155 120 56 96 141 82 26 
166 56 77 15 135 152 86 135 124 
29 93 88 85 102 159 57 59 115 
89 48 121 148 191 81 41 52 15 
111 34 34 69 117 149 91 165 76 
101 130 151 36 86 44 128 85 64 
159 128 16 181 136 60 167 86 36 
182 154 145 61 89 16 107 104 160 
17 121 114 182 100 117 52 85 31 
63 55 69 108 61 14 41 59 129 
63 111 113 144 38 40 191 111 4 
193 148 0 29 155 142 152 23 102 
118 137 111 139 112 4 40 172 54 
185 75 24 93 154 148 95 152 66 
32 171 60 34 169 61 95 80 69 
182 155 90 74 131 107 112 167 23 
177 92 113 121 25 148 165 92 116 
81 192 125 135 158 31 109 164 61 
34 143 121 167 112 30 8 75 43 
107 134 157 122 181 143 66 124 97 
34 61 46 138 163 54 10 132 58 
20 158 46 161 166 160 127 86 57 
30 63 7 51 186 117 176 126 73 
116 22 12 110 197 1 192 112 94 
91 123 105 179 116 14 52 109 37 
176 110 149 126 148 53 99 190 154 
54 186 27 170 148 59 44 61 16 
120 187 54 54 21 5 146 192 19 
23 114 89 158 157 51 116 145 24 
119 83 31 102 205 139 104 101 150 
36 155 141 165 128 138 166 122 80 
87 197 60 139 157 108 84 20 12 
105 27 101 130 106 137 22 52 152 
113 40 45 42 102 139 161 45 87 
97 124 114 91 32 100 119 196 55 
62 79 145 88 47 130 101 39 76 
149 116 80 108 102 11 22 92 141 
179 64 33 83 25 74 108 166 92 
124 91 6 129 114 86 172 143 132 
72 153 137 150 148 92 170 103 93 
18 151 125 94 26 107 144 147 120 
88 98 149 95 12 127 71 200 57 
63 16 72 34 60 27 153 103 138 
128 176 22 68 122 135 63 132 24 
134 156 54 152 28 117 123 104 54 
70 18 74 130 120 157 158 76 22 
130 174 7 65 14 67 145 187 150 
100 201 123 179 63 147 96 54 108 
146 165 105 97 39 95 36 83 93 
78 185 112 159 172 100 93 135 148 
64 160 83 51 173 72 142 99 134 
83 65 31 96 192 73 169 118 120 
158 97 35 158 56 138 47 138 70 
97 205 127 173 91 45 119 81 4 
143 194 111 132 37 84 118 90 119 
90 199 82 95 122 94 58 114 104 
37 163 127 174 159 57 49 161 150 
48 159 44 100 206 60 173 62 23 
54 121 43 170 39 111 76 200 89 
108 185 34 101 60 146 87 23 139 
62 32 140 54 99 49 41 109 74 
145 40 93 130 14 62 45 158 66 
71 84 132 96 57 70 121 143 19 
60 160 90 123 202 7 27 104 0 
17 70 135 22 139 100 105 11 19 
115 18 103 172 142 92 85 142 133 
52 51 134 70 26 78 108 123 8 
109 141 152 20 98 87 77 85 114 
98 171 72 125 48 75 14 84 33 
41 102 151 30 81 38 183 155 104 
72 143 51 149 50 158 39 147 113 
79 201 159 165 54 35 140 101 69 
89 161 104 43 36 98 47 84 78 
93 77 14 156 38 146 79 42 129 
47 68 95 161 146 149 92 101 56 
17 147 76 132 182 132 77 57 23 
184 59 72 30 101 19 73 168 71 
48 71 116 147 23 47 47 165 133 
136 29 18 113 26 69 163 137 36 
102 200 42 30 127 49 91 139 39 
73 183 109 93 99 20 135 56 108 
36 80 150 130 150 58 5 111 92 
105 144 15 72 192 94 22 49 150 
77 29 160 180 160 11 160 102 41 
83 134 158 161 89 80 151 136 53 
141 145 140 68 183 26 110 187 160 
107 82 12 80 194 120 74 19 118 
97 52 142 139 70 55 78 60 9 
144 101 133 111 103 110 174 112 139 
30 144 141 138 56 135 46 130 26 
174 108 91 155 45 92 121 112 1 
140 109 56 23 88 37 147 72 38 
89 161 90 116 93 66 186 62 121 
134 123 26 163 177 91 129 201 29 
47 180 151 133 23 103 16 109 71 
73 39 139 142 129 33 139 154 136 
116 83 42 146 108 160 72 195 156 
153 155 68 26 91 78 132 40 30 
176 170 101 157 99 3 63 161 149 
110 81 40 47 130 75 96 201 78 
25 139 137 180 165 144 95 54 75 
132 181 48 93 166 96 161 49 149 
106 76 6 86 110 65 63 72 145 
65 80 125 41 56 44 45 49 116 
172 114 145 129 191 69 29 115 130 
83 84 60 177 166 127 149 110 8 
83 19 96 153 147 117 59 182 65 
200 120 16 27 119 5 86 124 37 
122 183 61 10 136 115 115 144 12 
81 48 92 118 124 142 86 99 12 
172 114 48 122 107 139 47 152 105 
33 79 20 61 45 19 23 98 15 
73 50 108 138 70 107 86 152 34 
35 132 104 78 28 114 91 191 97 
28 124 12 156 40 147 204 76 98 
84 153 15 105 43 28 57 155 93 
62 148 109 38 141 51 18 158 43 
197 89 138 46 168 10 173 86 101 
56 137 6 185 83 25 17 147 19 
132 132 130 147 149 42 190 114 48 
43 77 42 5 97 4 128 181 90 
182 48 146 82 106 20 175 72 45 
33 56 22 187 103 6 97 155 54 
11 85 62 93 89 150 170 90 110 
46 116 93 187 150 16 120 108 0 
67 81 78 167 46 69 50 88 82 
90 31 8 35 63 34 108 18 124 
72 30 109 47 76 160 174 123 3 
122 79 146 19 88 90 39 149 92 
146 134 116 46 137 37 72 163 64 
11 120 38 15 77 72 157 185 114 
123 36 31 79 72 1 119 102 91 
72 61 45 137 32 3 162 185 47 
113 175 22 10 103 42 99 105 109 
165 135 19 28 95 14 141 95 94 
39 72 60 44 67 132 86 66 145 
109 111 59 175 122 2 162 43 0 
129 199 31 183 83 60 13 118 102 
58 31 5 22 79 41 184 119 61 
41 75 130 199 120 117 165 118 55 
42 97 133 120 22 118 195 100 112 
49 176 109 137 171 90 102 51 134 
119 162 88 72 180 106 117 81 112 
118 148 114 134 127 2 122 84 90 
113 70 121 52 58 111 148 135 159 
48 60 152 52 159 44 101 95 130 
164 111 40 155 156 96 26 108 45 
156 186 27 143 90 36 61 169 74 
155 135 67 96 28 149 74 179 83 
152 106 113 21 156 13 187 139 131 
59 131 100 178 106 5 175 110 152 
164 90 107 146 163 7 47 69 1 
65 119 104 165 78 58 120 183 116 
126 92 152 71 91 108 158 146 96 
34 41 7 37 86 65 125 201 150 
135 53 72 118 17 16 169 69 77 
101 201 157 112 91 136 59 99 44 
38 123 10 86 141 28 170 75 24 
20 95 138 50 139 57 76 144 91 
173 148 69 134 79 116 14 139 86 
176 82 8 156 99 68 101 72 124 
11 87 50 39 69 136 111 151 35 
95 101 112 127 111 104 185 52 159 
161 170 120 119 68 57 81 87 109 
105 103 158 47 80 112 135 82 50 
109 32 116 47 63 107 111 166 99 
37 72 117 86 20 69 57 167 20 
145 149 41 103 77 111 42 86 131 
178 79 39 79 48 108 184 146 26 
126 16 60 86 96 60 116 193 5 
148 80 121 161 100 100 157 127 28 
171 85 92 40 157 41 21 65 38 
74 144 96 160 107 73 90 202 94 
72 186 156 63 125 133 178 168 154 
104 155 31 24 146 11 169 111 7 
112 89 144 108 158 6 14 112 114 
15 112 13 94 90 87 128 168 42 
48 138 147 131 156 42 117 125 9 
97 123 115 50 168 98 105 169 44 
140 44 119 64 36 100 144 36 108 
73 39 30 127 190 136 179 90 147 
58 194 160 105 53 135 167 93 34 
47 130 68 34 139 84 130 176 36 
26 64 2 83 139 148 34 71 111 
19 121 135 77 180 132 87 167 65 
103 34 16 154 32 6 41 143 81 
81 142 149 151 124 9 34 66 160 
43 96 55 97 154 5 11 132 106 
108 41 58 148 130 29 29 55 100 
110 137 18 123 148 8 180 126 80 
171 42 20 40 86 49 109 190 15 
84 125 146 164 49 108 102 34 123 
82 34 64 171 145 63 9 138 108 
42 120 61 145 94 33 95 69 12 
149 161 8 122 99 127 187 152 0 
100 58 135 95 163 86 102 132 110 
42 134 57 78 36 83 179 124 20 
78 77 106 20 58 45 45 72 110 
157 181 103 128 192 86 94 61 96 
164 33 81 96 48 141 163 39 41 
38 94 74 173 128 147 172 104 64 
138 77 13 21 103 27 132 41 118 
174 149 37 106 178 56 137 143 75 
151 95 84 164 38 138 33 58 55 
72 133 82 153 23 94 77 180 27 
71 89 129 172 170 116 59 147 40 
155 175 138 101 78 2 150 152 34 
167 87 27 126 33 83 127 125 132 
76 31 54 53 122 76 73 38 20 
122 72 156 140 126 19 86 172 110 
165 126 100 144 156 53 149 182 149 
113 83 22 82 149 76 113 182 21 
77 158 128 167 67 13 179 157 102 
143 123 71 15 117 13 59 126 56 
142 41 87 165 145 39 45 72 71 
190 104 97 121 186 46 159 33 78 
64 63 129 61 83 1 145 62 66 
146 47 31 66 118 120 131 177 50 
185 126 94 42 118 143 107 32 23 
24 102 71 138 117 44 95 135 38 
174 101 75 178 107 80 188 127 57 
127 47 111 138 140 25 113 143 46 
152 159 143 62 96 14 101 7 3 
91 184 116 113 60 156 157 102 127 
124 100 20 82 170 10 77 187 145 
81 66 50 117 40 57 132 163 137 
164 118 59 119 93 7 156 185 17 
69 110 121 106 43 18 182 163 48 
162 99 97 38 135 89 66 31 32 
18 147 73 97 136 19 108 10 129 
83 168 54 88 149 52 137 140 32 
98 169 52 29 71 149 83 149 109 
79 50 56 68 86 46 32 89 48 
180 92 102 49 92 125 150 141 33 
60 157 102 23 73 32 111 41 31 
50 152 15 185 93 119 151 91 14 
97 183 63 24 137 106 106 41 36 
40 162 106 130 181 124 73 81 90 
160 135 107 185 137 85 167 114 94 
150 148 93 70 13 115 107 173 63 
160 116 125 150 83 0 82 26 19 
92 162 64 192 130 64 119 200 89 
162 142 59 110 67 58 16 76 18 
46 42 121 197 113 134 93 150 6 
130 43 11 43 73 47 142 65 139 
142 96 88 170 147 100 5 108 19 
56 142 150 4 91 74 162 94 120 
193 112 69 79 22 102 138 153 108 
159 50 2 62 98 122 126 13 86 
80 109 113 141 197 2 143 85 6 
126 69 56 25 84 34 94 10 94 
136 177 53 62 103 73 88 32 114 
22 149 1 50 172 150 157 95 121 
154 99 114 121 36 10 149 93 99 
24 117 24 150 170 138 128 161 106 
142 96 127 135 167 38 37 122 109 
38 140 23 147 154 20 44 60 68 
90 200 5 78 155 130 178 93 86 
22 144 82 176 131 56 127 14 83 
90 15 85 63 51 67 187 109 34 
[...]
POINT_DATA 1600
SCALARS scalars float
LOOKUP_TABLE default
393 354 371 365 374 391 349 390 382 
384 391 367 367 361 398 376 469 364 
376 420 375 382 16 354 403 399 389 
365 375 480 393 410 1166 394 364 382 
366 3 221 368 407 393 820 386 383 
380 377 367 384 375 357 395 771 249 
403 396 376 389 390 405 414 390 372 
376 380 403 363 386 405 386 338 1104 
360 1176 380 379 377 379 389 403 394 
385 14 394 387 376 399 89 383 393 
449 350 410 366 386 378 389 381 378 
61 391 82 353 388 389 847 377 385 
386 397 431 383 438 384 367 387 1197 
362 937 843 347 379 282 410 90 759 
421 374 366 186 384 426 384 380 314 
831 61 386 390 838 383 372 383 743 
382 401 394 381 389 428 385 413 396 
367 295 398 389 401 398 395 397 419 
393 398 401 368 383 383 358 373 404 
384 395 344 699 366 379 11 368 140 
403 404 365 356 385 374 370 368 402 
347 396 410 371 361 394 366 396 385 
376 386 32 386 389 429 356 372 373 
250 380 418 387 380 392 387 379 375 
860 413 398 367 385 372 390 380 394 
377 80 320 380 385 403 408 10 358 
379 400 373 373 390 367 387 1220 302 
392 393 375 1002 387 390 421 370 402 
389 406 367 359 380 395 417 807 364 
371 383 403 387 388 377 1191 358 27 
36 415 387 393 412 398 380 380 565 
358 409 391 406 5 372 372 378 403 
385 399 419 382 385 391 389 402 451 
385 389 388 397 337 392 13 398 386 
198 380 844 371 842 411 363 385 378 
382 5 386 418 336 174 399 402 386 
377 384 402 376 193 367 1160 402 399 
394 115 389 340 367 310 360 377 394 
379 370 403 388 360 830 395 404 375 
396 399 352 395 368 377 157 389 765 
406 379 404 399 387 408 407 387 473 
379 351 394 370 392 388 392 361 381 
388 376 383 385 388 399 353 397 358 
383 373 235 396 386 78 375 357 398 
390 373 385 375 365 377 405 356 359 
374 402 392 430 824 397 371 369 386 
407 375 399 833 398 372 402 829 357 
787 375 69 376 351 377 402 416 352 
380 404 384 374 389 368 119 380 400 
409 397 392 384 108 402 401 402 377 
419 811 423 1176 400 387 380 374 363 
395 323 386 386 361 365 8 392 818 
391 277 416 389 1256 412 384 1179 386 
410 395 392 387 416 388 385 371 386 
364 368 4 384 398 403 411 392 45 
268 397 368 370 389 391 398 408 366 
373 195 377 6 411 347 376 374 396 
361 426 376 401 367 402 395 384 388 
392 372 358 385 405 382 1199 365 384 
401 417 391 374 344 313 392 425 93 
400 374 19 377 371 842 384 391 813 
378 402 679 733 393 378 299 402 372 
379 390 369 409 56 385 387 375 355 
352 386 395 377 384 853 395 382 836 
1161 391 381 394 399 1167 373 388 376 
320 398 392 394 394 400 406 392 369 
395 401 366 372 386 381 428 394 376 
1165 817 399 353 389 118 366 396 389 
373 1208 398 386 394 397 365 421 390 
386 945 379 381 392 1089 353 379 404 
835 856 2 372 407 828 269 396 396 
409 383 391 378 376 375 400 849 365 
371 380 381 380 460 366 401 374 396 
389 375 385 385 383 292 364 388 64 
403 379 391 1037 385 362 385 824 388 
382 394 406 883 386 398 398 391 398 
398 360 378 52 419 402 413 399 382 
371 366 377 365 382 392 393 374 406 
393 400 385 407 390 387 391 389 362 
390 390 380 368 400 389 395 367 377 
389 369 63 374 361 390 398 840 241 
408 393 417 402 392 382 931 344 407 
380 374 401 286 400 354 383 380 372 
412 394 404 366 394 408 394 342 385 
409 91 378 1123 365 388 383 381 385 
368 391 699 389 385 380 394 410 388 
390 391 392 410 392 392 380 392 368 
396 396 406 386 403 386 362 371 367 
396 387 427 385 401 370 377 399 378 
388 826 395 385 390 401 384 372 402 
363 397 7 368 409 391 402 408 359 
387 387 392 397 414 375 1157 388 81 
410 396 390 395 389 250 385 395 431 
377 396 379 396 397 382 393 390 414 
389 370 405 396 364 380 381 376 407 
375 382 453 371 381 394 408 30 384 
383 388 375 393 375 353 367 377 366 
370 349 420 388 401 390 669 387 250 
387 18 375 369 374 377 389 1244 222 
860 14 376 408 375 185 391 430 395 
375 369 370 398 389 415 374 371 396 
1039 406 388 377 414 390 386 381 387 
350 368 322 378 405 384 388 391 317 
387 369 368 370 398 394 355 111 382 
73 384 811 365 864 388 366 403 386 
1192 400 397 384 377 352 395 396 412 
403 422 367 404 389 373 391 384 457 
366 750 389 354 644 376 392 361 390 
385 411 390 359 855 365 385 402 829 
367 860 280 395 371 386 362 339 383 
10 387 1190 405 382 893 396 395 1191 
385 406 389 427 375 389 386 89 397 
399 383 392 409 405 182 382 386 377 
381 393 370 393 389 384 371 364 45 
387 372 355 351 398 378 396 8 352 
1 382 381 386 372 393 372 399 323 
375 372 383 381 386 400 399 397 714 
392 387 391 376 370 384 963 375 383 
397 377 363 394 313 354 385 397 395 
392 382 395 391 400 388 409 403 826 
375 375 339 659 388 409 357 369 377 
36 1177 902 843 192 372 385 399 384 
724 148 403 377 387 362 1182 363 371 
380 371 377 375 383 197 385 271 375 
379 399 377 496 375 380 394 395 327 
399 91 404 372 377 366 387 374 512 
390 392 395 829 370 384 376 407 827 
358 373 210 396 359 392 821 389 395 
373 362 370 390 408 398 420 552 356 
399 368 364 344 383 375 385 407 398 
380 350 402 383 357 361 418 384 1246 
406 844 422 1186 390 409 368 365 378 
374 408 376 52 417 411 416 385 378 
377 383 375 389 358 372 419 356 358 
392 402 382 385 409 359 376 394 399 
381 394 414 198 393 817 391 359 316 
371 398 1141 375 378 173 379 411 194 
401 366 368 391 394 276 367 427 353 
390 372 381 462 380 397 380 384 406 
398 410 397 393 366 369 392 368 371 
403 408 357 398 31 369 411 381 587 
810 391 356 385 403 373 402 387 386 
363 386 397 372 378 164 373 378 865 
404 392 384 390 382 358 403 381 512 
361 417 393 479 375 372 377 1179 374 
414 382 801 819 392 862 379 75 391 
408 361 417 370 362 363 385 390 376 
394 387 406 393 371 385 389 357 596 
408 391 380 370 415 389 384 264 349 
384 391 391 367 386 398 373 382 385 
357 383 405 385 385 361 364 393 433 
388 379 409 380 388 377 406 365 773 
379 387 749 841 398 381 389 369 365 
143 378 6 361 403 273 811 873 397 
381 391 385 404 367 822 378 361 388 
386 385 398 393 411 386 400 394 411 
390 405 372 378 405 397 358 365 371 
392 385 379 397 397 390 1129 385 395 
374 346 419 402 377 394 806 356 384 
181 387 372 388 396 383 383 347 406 
397 364 404 353 369 390 354 330 424 
376 388 395 400 387 400 370 399 458 
405 390 422 1189 363 390 386 367 384 
378 396 375 860 397 356 398 392 435 
387 383 537 431 376 393 404 403 364 
403 389 397 401 376 403 375 367 898 
848 405 382 393 383 380 375 388 343 
424 378 860 371 401 371 861 389 363 
397 394 369 729 393 364 381 365 385 
382 375 12 392 397 383 392 401 396 
381 387 1160 378 390 404 1229 402 393 
384 399 832 399 377 249 385 371 374 
380 384 395 407 409 389 383 368 383 
402 365 404 372 383 383 376 380 387 
387 416 408 385 374 379 732 368 394 
382 386 390 380 381 408 354 369 365 
1 372 390 396 371 398 373 302 387 
368 394 395 1051 361 406 383 
